	192
Lattice="12.425416 0.0 0.0 0.0 12.425416 0.0 0.0 0.0 12.425416" Properties=species:S:1:pos:R:3:forces:R:3 pbc="True True True"
   H         5.673140         9.528940         6.247180         0.066719        -0.330722        -0.747051
   H         5.823640         8.732340         4.886350        -0.305683         0.418490         0.655888
   H         2.017790         8.399910         7.967680        -0.300536         0.354637        -0.568429
   H         1.199660         9.036360         6.769910         0.701029        -0.297633         0.555078
   H         9.241910         8.776880         9.838540         0.924098         0.261834         0.412794
   H        10.108600        10.088600        10.031300        -0.093787        -0.607274        -0.103175
   H         1.454940        11.201200         7.067030         0.623083         0.166727        -0.169333
   H         3.030610        11.224100         6.906410        -0.506333         0.022694         0.026296
   H         5.644420         6.394370        10.683700        -0.193283         0.864046        -0.090388
   H         4.997590         7.838020        10.764600         0.563944         0.013259        -0.074004
   H        11.225100         3.321480         7.508720        -0.052856         0.452707         0.100857
   H        10.544200         4.633480         8.078070        -0.308475        -0.417062         0.047613
   H        10.568500        10.990300         5.450560        -0.101284        -0.087358         0.597255
   H        11.236100        10.607700         6.835120        -0.232853         0.179850        -0.391008
   H         5.108500         7.338530         1.201410         0.271814         0.176626        -0.396627
   H         5.712460         8.802800         1.187330         0.032865        -0.233898        -0.333647
   H         6.054590         3.204390         6.116180        -0.181304         0.394426         1.061970
   H         6.566180         3.094360         7.611250        -0.315734         0.381109        -0.733808
   H         4.515870         3.150910         9.516790        -0.485021        -0.303950        -0.514374
   H         3.424900         2.466190         8.594840         0.351888        -0.193102         0.531201
   H         4.235760         1.199820         4.693590         0.351795         0.226673        -0.268164
   H         4.972490         2.546720         4.303540        -0.305746        -0.519032         0.270012
   H         1.296480         8.715280        10.177500        -0.304511         0.661796        -0.550081
   H         1.199630        10.182300         9.588080         0.151381        -0.709060        -0.240013
   H         7.058710        10.645600        11.226200        -0.028542        -0.629413        -0.037378
   H         7.197630         9.187350        10.623500        -0.350915         0.781688         0.305049
   H         7.992620         3.677610         1.617650         0.043938         0.278163         0.483955
   H         7.064610         3.833150         2.891870        -0.087291         0.154964        -0.678779
   H         6.326610         6.224610         3.674270         0.792017        -0.199342        -0.074902
   H         7.237270         5.967980         2.403880        -0.201069         0.338725         0.665290
   H         8.859490         2.606770        11.112400         0.968394         0.043914        -0.324018
   H        10.062900         2.313820        10.125000        -0.465992         0.293775         0.048161
   H         3.609450         8.474190         5.591580        -0.476605         0.641505        -0.730283
   H         2.775380         9.781960         5.270430         0.005054        -0.697253         0.054135
   H         9.065190         6.572440         6.915380        -0.586263         0.055681         0.001676
   H         8.552520         7.783440         7.798380        -0.026423        -0.254980        -0.239024
   H         9.796270         9.077180         6.207230        -0.606277        -0.490205        -0.140044
   H         8.694550         9.121110         5.069980        -0.028906         0.241521         0.322919
   H         4.621280         1.209810        10.542400        -0.485918        -0.328703         0.406763
   H         3.245230         1.785400        11.075600         0.796722        -0.182881        -0.215464
   H         3.020490         5.485400         9.044810         0.088832        -0.720159         0.987733
   H         3.551040         4.981890        10.449800        -0.850795         0.228394        -0.987902
   H        11.242800         7.469980         5.803920         0.225418        -0.421712         0.861032
   H        11.253000         6.381690         6.954830         0.265603         0.750823        -0.355356
   H         4.649850         5.769370         6.907020         0.117539        -0.214592         0.831923
   H         4.447260         4.437630         7.740380        -0.195364         0.690569         0.095273
   H         6.037860        11.062500         1.827690         0.741687         0.376007        -0.054805
   H         7.612730        11.225700         1.874800        -0.960858        -0.209406        -0.140482
   H         3.841230         9.608890         9.695600        -0.311581         0.567340         0.564845
   H         3.978340         9.948630        11.236600        -0.548307         0.013751        -0.554605
   H         8.279440         8.862440         2.926470        -0.384867        -0.005662         0.120984
   H         6.785430         9.380820         3.017520         0.506553        -0.310182         0.131117
   H         4.201370         8.446330         7.708520        -0.165449         0.006135         0.447813
   H         3.787480         7.543430         8.942430         0.255351         0.014366        -0.120803
   H         3.178230         1.922080         6.481450        -0.374837        -0.204578        -0.330507
   H         1.804100         2.018030         5.699400         0.234508        -0.433058         0.194971
   H         8.066660         1.201850         2.742990        -0.464160         0.319995        -0.531884
   H         7.558150         1.549240         1.283600         0.100534        -0.566709         0.651501
   H         5.432190         4.162310        11.238400         0.145862        -0.226954         0.294955
   H         6.795080         3.355180        11.226700        -0.567120         0.113642         0.227458
   H         8.061130         1.368680         7.669770         0.293903        -0.021750        -0.388278
   H         9.609020         1.546600         7.384400        -0.688437        -0.156238        -0.138998
   H         9.512230         7.178850         4.483290         0.035767        -0.543061        -0.700769
   H         9.235200         6.540920         3.060140         0.392656         0.856655         0.537839
   H         2.047820         1.677590         1.202760        -0.176716         0.314912         0.514513
   H         1.946100         2.692790         2.414410        -0.026434        -0.485112        -0.323403
   H         9.276270         3.530490         6.521750        -0.252222        -0.144527         0.665923
   H         8.702980         3.445870         7.995940         0.756582        -0.357444        -0.462843
   H         7.723290        10.983600         7.979560         0.739567        -0.039457        -0.197998
   H         9.237430        11.150600         7.545360        -0.894038         0.185072        -0.185424
   H        11.244700         8.287220         3.778300         0.618385        -0.220865        -0.254291
   H        11.229300         7.332960         2.514090         0.009042         0.179326         0.233096
   H         2.699910         6.970990        10.757500         0.014927         0.065240         0.266076
   H         1.197060         6.803420        11.229100         0.385268         0.162326        -0.040782
   H         6.755290         4.760530         9.035100         0.163866         0.300622        -0.206747
   H         7.023120         5.332300         7.582380         0.085788        -0.406724        -0.064301
   H         6.056520         7.444680         6.813020         0.234563         0.353473         0.384999
   H         7.382300         7.619890         5.964100        -0.248701         0.255608         0.131381
   H         8.791040         4.618870         9.851680         0.215208         0.502082        -0.389330
   H         8.621240         5.923200         8.969100        -0.341745        -0.371068         0.436662
   H        11.158100         8.571100        11.226200        -0.010785        -0.545592        -0.323494
   H        11.219600         7.003350        11.008400        -0.279512         0.297947         0.111881
   H         9.126310         3.220520         4.350950         0.247936         0.356859        -0.672965
   H        10.132900         4.250800         3.691870        -0.618595        -0.457503        -0.033998
   H        10.925200         7.590420         8.918500        -0.474400         0.814162        -0.330461
   H        10.700000         8.988030         8.207860        -0.183456        -0.770541         0.662448
   H         8.809260         5.223950         5.200230        -0.620337        -0.291486        -0.347642
   H         7.355220         4.615380         5.043760         0.660155         0.087032         0.277856
   H         1.197610         6.162210         1.675770         0.363797        -0.376242        -0.663807
   H         2.674690         6.469260         1.193060        -0.320011        -0.439568        -0.211004
   H         7.111100        11.227300         4.341820        -0.326135         0.380409         0.863148
   H         7.009020        11.246900         5.922410         0.014112         0.025265        -0.859717
   H         2.189990         6.693030         6.589490        -0.041134        -0.333777        -0.186924
   H         1.194160         5.549410         6.131760         0.267156         0.229867         0.030369
   H         4.493440         4.603860         4.912820        -0.228767         0.438949         0.563232
   H         3.160570         4.635640         5.768110         0.829383        -0.205249         0.175497
   H         8.601440         7.535900         1.203790        -0.158220         1.043860        -0.151195
   H         9.631500         8.739220         1.196020        -0.450175        -0.140260         0.119563
   H         1.567800         7.917830         3.414130         0.147081        -0.290826         0.055612
   H         1.188810         7.754830         4.943460        -0.112832        -0.076479        -0.296387
   H         4.648100         2.736640         2.137160         0.017639        -0.198484        -0.249185
   H         5.908270         3.009470         1.217050        -0.362724        -0.343152         0.698925
   H         5.816640        11.223300         9.049420        -0.229479        -0.516566         0.079221
   H         4.846710        10.589600         7.969240         0.411829         0.163394         0.563685
   H         4.646180         8.395970         3.065690        -0.665573        -0.107052        -0.395383
   H         3.307870         9.230370         3.213180         0.168317        -0.806934        -0.029572
   H         9.722520        11.237200         2.474970         0.059925        -0.131723         0.494315
   H        10.006800        10.086400         3.525690        -0.256629         0.546649        -0.362778
   H         9.257800         5.424980         1.198640         0.877127         0.324299        -0.073363
   H        10.706900         5.149200         1.775720        -0.484662         0.198649        -0.474688
   H         7.147670         2.270410         4.430010        -0.224215        -0.712596         0.175580
   H         6.371430         1.184590         5.282940         0.704882         0.445759        -0.045532
   H         7.732680         5.974470        11.218200         0.309436         0.725489        -0.011135
   H         8.330020         7.438110        11.318300         0.084933        -0.556555         0.125209
   H         1.448050         2.897260         9.863660        -0.120259         0.364294        -0.479034
   H         1.197950         4.267520         9.109420        -0.225346        -0.467222         0.100887
   H        11.223300         3.817740        11.232800         0.379380         0.350331        -0.150625
   H        11.264600         4.979000        10.156400        -0.035913        -0.763552         0.140895
   H         1.183740        10.921600         3.221090         0.520987         0.030318         0.015060
   H         2.654150        11.271600         3.694880        -0.402928        -0.013443        -0.416925
   H         6.405620         2.032570         9.529980        -0.076452        -0.278815        -0.317514
   H         5.426640         1.410430         8.451290         0.024546        -0.138234         0.339193
   H         2.730640         8.667410         1.168090        -0.485381        -0.192666        -0.073402
   H         1.190830         8.317570         1.293270         0.691602         0.134308        -0.086411
   H         2.938020         5.791190         3.913800         0.306405        -0.055722         0.012402
   H         4.148500         6.705220         4.370240        -0.182529        -0.299614         0.175572
   H         6.298850         7.657020         9.005920         0.405073         0.022873        -0.307295
   H         6.874260         9.027620         8.458710         0.121258        -0.315633         0.744829
   O         5.773230         9.614670         5.286170         0.971325        -0.796267         0.522971
   O         1.285960         8.992540         7.735070        -1.456760        -1.584880        -0.302571
   O         9.254420         9.740800         9.730840         0.922725        -1.239300         0.584112
   O         2.297470        10.970200         7.488560         0.347369         2.134470         0.161207
   O         5.088830         6.984580        11.216500        -0.887956        -0.252975         0.331078
   O        10.944200         3.782080         8.314850         1.210470        -0.431480        -0.039165
   O        11.226100        11.255000         6.112760         0.510001         0.130036         0.047360
   O         5.928150         7.857240         1.204740        -1.216920         0.963701        -1.154620
   O         6.737610         2.829530         6.693980        -2.012880        -1.157580        -0.381125
   O         3.568180         3.097930         9.316830         1.399560         1.148810        -2.107570
   O         4.169290         2.017890         4.176640         0.623112        -1.263850        -1.141590
   O         1.697260         9.598600        10.181800         0.194107        -0.183266         1.221320
   O         7.147390        10.131800        10.408200        -0.909490         0.986896         1.178000
   O         7.836390         3.373780         2.525490         0.054179         1.996920         0.596240
   O         6.391590         6.329510         2.712150        -0.517437        -1.914020         1.072260
   O         9.374630         1.910020        10.676500        -0.503446        -0.103932         0.648467
   O         3.530840         9.425580         5.763570        -0.878447         0.036808         1.926930
   O         9.338190         7.339300         7.442910        -0.600693         0.036687         0.776845
   O         8.953490         9.473380         5.935860         1.510660        -1.001240         0.219519
   O         3.658860         1.200250        10.421800        -0.160030        -1.954500         1.267730
   O         3.795090         5.432580         9.626280         1.319920         0.710792        -0.466376
   O        11.067900         6.539710         6.015860         0.409972        -0.702462        -1.465400
   O         4.952340         4.855370         7.025330        -1.311780        -0.517305        -1.396720
   O         6.837510        11.187300         1.293020        -0.581544         0.396757        -0.903252
   O         4.443720         9.927460        10.385800        -0.267633        -1.567000         2.334460
   O         7.493130         9.106450         2.413550         1.093550         0.455753         1.254160
   O         4.280090         7.565520         8.107110        -2.206790        -1.030030        -1.578120
   O         2.526560         2.528930         6.096790        -1.774510        -0.780239         1.695450
   O         7.285280         1.273760         2.172730         0.145180        -1.842210        -0.567009
   O         6.393360         4.232570        11.128300         0.502324        -0.112701        -0.276588
   O         8.953950         1.179380         7.998330         0.758919         1.090790        -0.012620
   O         8.825070         6.950800         3.837770        -0.745165        -0.418210         0.653570
   O         2.532170         2.330910         1.731420        -0.338365         0.080823        -0.145405
   O         8.615400         3.886350         7.136170         1.671630         0.394485         1.324950
   O         8.606820        11.253600         8.275180        -0.682746         0.555099        -1.099300
   O        10.793800         8.085950         2.943340         2.124860         0.178953         1.388450
   O         1.911930         6.407630        10.706500        -1.165270         0.550506         0.500085
   O         6.542360         5.473590         8.412920         1.557630         0.717725         1.843890
   O         6.678140         7.001570         6.214570        -1.118970         0.933218        -0.178870
   O         9.195600         5.464360         9.601920         0.353703        -0.369933        -1.876410
   O        10.635800         7.754150        11.199200         0.400268        -0.300857         0.581704
   O        10.058700         3.401050         4.153740         0.636534        -0.161797         1.017390
   O        11.264500         8.494070         8.822800         1.348350         0.028884        -0.579028
   O         7.899760         5.249080         5.536510         0.157406         0.093332        -1.341970
   O         2.103470         6.349380         1.967810        -1.361740        -0.300965        -0.650378
   O         7.569360        11.007000         5.167870         0.931415         1.870050        -1.044890
   O         1.300410         6.324170         6.705650        -0.001395        -0.229899         0.228584
   O         3.681130         4.120980         5.131680        -0.105868         1.858830        -2.086020
   O         9.541020         7.773930         1.165870        -1.060220        -1.281060        -1.309400
   O         1.892170         8.005020         4.324120        -2.182060         1.308750         1.037770
   O         4.986260         2.708350         1.228450         0.496366         0.578704        -0.847976
   O         4.917160        11.238700         8.686660         0.128689         1.634480        -2.539270
   O         4.254010         9.206840         3.425680         0.684109         0.683920        -1.726660
   O        10.146900        10.375500         2.610450         0.044575         0.667427        -0.353899
   O         9.954130         4.758170         1.305310        -0.083970        -0.342711         0.262111
   O         7.156230         1.350490         4.737530         0.091979        -0.351582        -0.604919
   O         7.789920         6.838160        10.780400        -1.091040         1.224550         0.812057
   O         1.587640         3.856590         9.896920        -1.700320         0.355656         0.767012
   O        10.754200         4.592160        10.884900         1.100600        -0.402024         1.495240
   O         1.726120        11.212500         3.970840         0.150585         0.064776         0.461120
   O         6.253140         1.276960         8.941170         0.247634         0.161720         0.443047
   O         1.874610         8.971000         1.508620        -0.275689         0.857384         0.037888
   O         3.450760         6.588120         3.706670         2.679910        -0.874044         0.282505
   O         6.091120         8.586870         8.823870         1.594090         0.305369         0.0000