--------------------------------------------------------------------------
WARNING: There was an error initializing an OpenFabrics device.

  Local host:   node01
  Local device: mlx5_0
--------------------------------------------------------------------------
[node01:1750391] [[43531,0],0] ORTE_ERROR_LOG: Out of resource in file util/show_help.c at line 507
 DBCSR| CPU Multiplication driver                                           XSMM
 DBCSR| Multrec recursion limit                                              512
 DBCSR| Multiplication stack size                                           1000
 DBCSR| Maximum elements for images                                    UNLIMITED
 DBCSR| Multiplicative factor virtual images                                   1
 DBCSR| Use multiplication densification                                       T
 DBCSR| Multiplication size stacks                                             3
 DBCSR| Use memory pool for CPU allocation                                     F
 DBCSR| Number of 3D layers                                               SINGLE
 DBCSR| Use MPI memory allocation                                              F
 DBCSR| Use RMA algorithm                                                      F
 DBCSR| Use Communication thread                                               T
 DBCSR| Communication thread load                                             83
 DBCSR| MPI: My node id                                                        0
 DBCSR| MPI: Number of nodes                                                  12
 DBCSR| OMP: Current number of threads                                         2
 DBCSR| OMP: Max number of threads                                             2
 DBCSR| Split modifier for TAS multiplication algorithm                  1.0E+00


  **** **** ******  **  PROGRAM STARTED AT               2099-10-25 07:31:42.824
 ***** ** ***  *** **   PROGRAM STARTED ON                                
 **    ****   ******    PROGRAM STARTED BY                               
 ***** **    ** ** **   PROGRAM PROCESS ID                               0000000
  **** **  *******  **  PROGRAM STARTED IN 

 CP2K| version string:                                       CP2K version 2022.2
 CP2K| source code revision number:                                  git:a95ec40
 CP2K| cp2kflags: omp libint fftw3 libxc elpa parallel mpi3 scalapack cosma xsmm
 CP2K|             spglib sirius libvori libbqb
 CP2K| is freely available from                            https://www.cp2k.org/
 CP2K| Program compiled at                          Tue Dec 20 11:55:48 KST 2022
 CP2K| Program compiled on                                                
 CP2K| Program compiled for                                                
 CP2K| Data directory path               
 CP2K| Input file name                                                 input.inp

 GLOBAL| Force Environment number                                              1
 GLOBAL| Basis set file name                                   BASIS_MOLOPT_SCAN
 GLOBAL| Potential file name                                 GTH_POTENTIALS_SCAN
 GLOBAL| MM Potential file name                                     MM_POTENTIAL
 GLOBAL| Coordinate file name                                      __STD_INPUT__
 GLOBAL| Method name                                                        CP2K
 GLOBAL| Project name                                                      DPGEN
 GLOBAL| Run type                                                   ENERGY_FORCE
 GLOBAL| FFT library                                                       FFTW3
 GLOBAL| Diagonalization library                                            ELPA
 GLOBAL| Minimum number of eigenvectors for ELPA usage                        16
 GLOBAL| Orthonormality check for eigenvectors                          DISABLED
 GLOBAL| Matrix multiplication library                                     COSMA
 GLOBAL| All-to-all communication in single precision                          F
 GLOBAL| FFTs using library dependent lengths                                  F
 GLOBAL| Grid backend                                                       AUTO
 GLOBAL| Global print level                                               MEDIUM
 GLOBAL| MPI I/O enabled                                                       T
 GLOBAL| Total number of message passing processes                            12
 GLOBAL| Number of threads for this process                                    2
 GLOBAL| This output is from process                                           0
 GLOBAL| Stack size for threads created by OpenMP (OMP_STACKSIZE)        default
 GLOBAL| CPU model name                
 GLOBAL| CPUID                                                              1002

 MEMORY| system memory details [Kb]
 MEMORY|                        rank 0           min           max       average
 MEMORY| MemTotal            131658792     131658792     131658792     131658792
 MEMORY| MemFree             112059464     112039416     112059464     112055291
 MEMORY| Buffers                847692        847692        847692        847692
 MEMORY| Cached               14418400      14418400      14418400      14418400
 MEMORY| Slab                   770612        770612        770612        770612
 MEMORY| SReclaimable           386680        386680        386680        386680
 MEMORY| MemLikelyFree       127712236     127692188     127712236     127708063


 *** Fundamental physical constants (SI units) ***

 *** Literature: B. J. Mohr and B. N. Taylor,
 ***             CODATA recommended values of the fundamental physical
 ***             constants: 2006, Web Version 5.1
 ***             http://physics.nist.gov/constants

 Speed of light in vacuum [m/s]                             2.99792458000000E+08
 Magnetic constant or permeability of vacuum [N/A**2]       1.25663706143592E-06
 Electric constant or permittivity of vacuum [F/m]          8.85418781762039E-12
 Planck constant (h) [J*s]                                  6.62606896000000E-34
 Planck constant (h-bar) [J*s]                              1.05457162825177E-34
 Elementary charge [C]                                      1.60217648700000E-19
 Electron mass [kg]                                         9.10938215000000E-31
 Electron g factor [ ]                                     -2.00231930436220E+00
 Proton mass [kg]                                           1.67262163700000E-27
 Fine-structure constant                                    7.29735253760000E-03
 Rydberg constant [1/m]                                     1.09737315685270E+07
 Avogadro constant [1/mol]                                  6.02214179000000E+23
 Boltzmann constant [J/K]                                   1.38065040000000E-23
 Atomic mass unit [kg]                                      1.66053878200000E-27
 Bohr radius [m]                                            5.29177208590000E-11

 *** Conversion factors ***

 [u] -> [a.u.]                                              1.82288848426455E+03
 [Angstrom] -> [Bohr] = [a.u.]                              1.88972613288564E+00
 [a.u.] = [Bohr] -> [Angstrom]                              5.29177208590000E-01
 [a.u.] -> [s]                                              2.41888432650478E-17
 [a.u.] -> [fs]                                             2.41888432650478E-02
 [a.u.] -> [J]                                              4.35974393937059E-18
 [a.u.] -> [N]                                              8.23872205491840E-08
 [a.u.] -> [K]                                              3.15774647902944E+05
 [a.u.] -> [kJ/mol]                                         2.62549961709828E+03
 [a.u.] -> [kcal/mol]                                       6.27509468713739E+02
 [a.u.] -> [Pa]                                             2.94210107994716E+13
 [a.u.] -> [bar]                                            2.94210107994716E+08
 [a.u.] -> [atm]                                            2.90362800883016E+08
 [a.u.] -> [eV]                                             2.72113838565563E+01
 [a.u.] -> [Hz]                                             6.57968392072181E+15
 [a.u.] -> [1/cm] (wave numbers)                            2.19474631370540E+05
 [a.u./Bohr**2] -> [1/cm]                                   5.14048714338585E+03
 

 CELL_TOP| Volume [angstrom^3]:                                      2632.790050
 CELL_TOP| Vector a [angstrom    13.808     0.000     0.000   |a| =    13.808253
 CELL_TOP| Vector b [angstrom     0.000    13.808     0.000   |b| =    13.808253
 CELL_TOP| Vector c [angstrom     0.000     0.000    13.808   |c| =    13.808253
 CELL_TOP| Angle (b,c), alpha [degree]:                                90.000000
 CELL_TOP| Angle (a,c), beta  [degree]:                                90.000000
 CELL_TOP| Angle (a,b), gamma [degree]:                                90.000000
 CELL_TOP| Numerically orthorhombic:                                         YES

 GENERATE|  Preliminary Number of Bonds generated:                             0
 GENERATE|  Achieved consistency in connectivity generation.

 CELL| Volume [angstrom^3]:                                          2632.790050
 CELL| Vector a [angstrom]:      13.808     0.000     0.000   |a| =    13.808253
 CELL| Vector b [angstrom]:       0.000    13.808     0.000   |b| =    13.808253
 CELL| Vector c [angstrom]:       0.000     0.000    13.808   |c| =    13.808253
 CELL| Angle (b,c), alpha [degree]:                                    90.000000
 CELL| Angle (a,c), beta  [degree]:                                    90.000000
 CELL| Angle (a,b), gamma [degree]:                                    90.000000
 CELL| Numerically orthorhombic:                                             YES

 CELL_REF| Volume [angstrom^3]:                                      2632.790050
 CELL_REF| Vector a [angstrom    13.808     0.000     0.000   |a| =    13.808253
 CELL_REF| Vector b [angstrom     0.000    13.808     0.000   |b| =    13.808253
 CELL_REF| Vector c [angstrom     0.000     0.000    13.808   |c| =    13.808253
 CELL_REF| Angle (b,c), alpha [degree]:                                90.000000
 CELL_REF| Angle (a,c), beta  [degree]:                                90.000000
 CELL_REF| Angle (a,b), gamma [degree]:                                90.000000
 CELL_REF| Numerically orthorhombic:                                         YES

 *******************************************************************************
 *******************************************************************************
 **                                                                           **
 **     #####                         ##              ##                      **
 **    ##   ##            ##          ##              ##                      **
 **   ##     ##                       ##            ######                    **
 **   ##     ##  ##   ##  ##   #####  ##  ##   ####   ##    #####    #####    **
 **   ##     ##  ##   ##  ##  ##      ## ##   ##      ##   ##   ##  ##   ##   **
 **   ##  ## ##  ##   ##  ##  ##      ####     ###    ##   ######   ######    **
 **    ##  ###   ##   ##  ##  ##      ## ##      ##   ##   ##       ##        **
 **     #######   #####   ##   #####  ##  ##  ####    ##    #####   ##        **
 **           ##                                                    ##        **
 **                                                                           **
 **                                                ... make the atoms dance   **
 **                                                                           **
 **            Copyright (C) by CP2K developers group (2000-2022)             **
 **                      J. Chem. Phys. 152, 194103 (2020)                    **
 **                                                                           **
 *******************************************************************************

 DFT| Spin restricted Kohn-Sham (RKS) calculation                            RKS
 DFT| Multiplicity                                                             1
 DFT| Number of spin states                                                    1
 DFT| Charge                                                                   0
 DFT| Self-interaction correction (SIC)                                       NO
 DFT| Cutoffs: density                                              1.000000E-10
 DFT|          gradient                                             1.000000E-10
 DFT|          tau                                                  1.000000E-10
 DFT|          cutoff_smoothing_range                               0.000000E+00
 DFT| XC density smoothing                                                  NONE
 DFT| XC derivatives                                                          PW

 FUNCTIONAL| MGGA_X_R2SCAN:
 FUNCTIONAL| [1] J. W. Furness, A. D. Kaplan, J. Ning, J. P. Perdew, and J. Sun,
 FUNCTIONAL|  J. Phys. Chem. Lett. 11, 8208 (2020), doi: 10.1021/acs.jpclett.0c0
 FUNCTIONAL| 2405                                                               
 FUNCTIONAL| Optional external parameters:                                      
 FUNCTIONAL|  * c1 parameter                                                    
 FUNCTIONAL|  * c2 parameter                                                    
 FUNCTIONAL|  * d parameter                                                     
 FUNCTIONAL|  * k1 parameter                                                    
 FUNCTIONAL|  * eta parameter                                                   
 FUNCTIONAL|  * dp2 parameter                                                   
 FUNCTIONAL| {scale=1.000, spin-unpolarized}                                    
 FUNCTIONAL| MGGA_C_R2SCAN:
 FUNCTIONAL| [1] J. W. Furness, A. D. Kaplan, J. Ning, J. P. Perdew, and J. Sun,
 FUNCTIONAL|  J. Phys. Chem. Lett. 11, 8208 (2020), doi: 10.1021/acs.jpclett.0c0
 FUNCTIONAL| 2405                                                               
 FUNCTIONAL| Optional external parameters:                                      
 FUNCTIONAL|  * Regularization parameter                                        
 FUNCTIONAL| {scale=1.000, spin-unpolarized}                                    


 QS| Method:                                                                 GPW
 QS| Density plane wave grid type                        NON-SPHERICAL FULLSPACE
 QS| Number of grid levels:                                                    4
 QS| Density cutoff [a.u.]:                                                600.0
 QS| Multi grid cutoff [a.u.]: 1) grid level                               600.0
 QS|                           2) grid level                               200.0
 QS|                           3) grid level                                66.7
 QS|                           4) grid level                                22.2
 QS| Grid level progression factor:                                          3.0
 QS| Relative density cutoff [a.u.]:                                        30.0
 QS| Interaction thresholds: eps_pgf_orb:                                1.0E-07
 QS|                         eps_filter_matrix:                          0.0E+00
 QS|                         eps_core_charge:                            1.0E-16
 QS|                         eps_rho_gspace:                             1.0E-14
 QS|                         eps_rho_rspace:                             1.0E-14
 QS|                         eps_gvg_rspace:                             1.0E-07
 QS|                         eps_ppl:                                    1.0E-02
 QS|                         eps_ppnl:                                   1.0E-09


 ATOMIC KIND INFORMATION

  1. Atomic kind: H                                     Number of atoms:     134

     Orbital Basis Set                                  TZV2P-MOLOPT-SCAN-GTH-q1

       Number of orbital shell sets:                                           1
       Number of orbital shells:                                               6
       Number of primitive Cartesian functions:                                5
       Number of Cartesian basis functions:                                   15
       Number of spherical basis functions:                                   14
       Norm type:                                                              2

       Normalised Cartesian orbitals:

                        Set   Shell   Orbital            Exponent    Coefficient

                          1       1    2s                9.168765       0.095357
                                                         2.161194       0.125778
                                                         0.619868       0.162183
                                                         0.161316       0.074849
                                                         0.412255       0.090962

                          1       2    3s                9.168765      -0.435739
                                                         2.161194      -0.868971
                                                         0.619868      -0.406683
                                                         0.161316      -0.142964
                                                         0.412255       0.978336

                          1       3    4s                9.168765       0.385896
                                                         2.161194       1.113624
                                                         0.619868       0.043366
                                                         0.161316      -0.067676
                                                         0.412255       0.053421

                          1       4    3px               9.168765      -1.788640
                                                         2.161194       0.906920
                                                         0.619868       0.273605
                                                         0.161316       0.091389
                                                         0.412255       0.008094
                          1       4    3py               9.168765      -1.788640
                                                         2.161194       0.906920
                                                         0.619868       0.273605
                                                         0.161316       0.091389
                                                         0.412255       0.008094
                          1       4    3pz               9.168765      -1.788640
                                                         2.161194       0.906920
                                                         0.619868       0.273605
                                                         0.161316       0.091389
                                                         0.412255       0.008094

                          1       5    4px               9.168765       3.833256
                                                         2.161194      -1.958439
                                                         0.619868      -0.594902
                                                         0.161316       0.094348
                                                         0.412255      -0.017587
                          1       5    4py               9.168765       3.833256
                                                         2.161194      -1.958439
                                                         0.619868      -0.594902
                                                         0.161316       0.094348
                                                         0.412255      -0.017587
                          1       5    4pz               9.168765       3.833256
                                                         2.161194      -1.958439
                                                         0.619868      -0.594902
                                                         0.161316       0.094348
                                                         0.412255      -0.017587

                          1       6    4dx2              9.168765       0.046944
                                                         2.161194       0.005757
                                                         0.619868      -0.000296
                                                         0.161316       0.067696
                                                         0.412255      -0.000784
                          1       6    4dxy              9.168765       0.081310
                                                         2.161194       0.009971
                                                         0.619868      -0.000513
                                                         0.161316       0.117253
                                                         0.412255      -0.001358
                          1       6    4dxz              9.168765       0.081310
                                                         2.161194       0.009971
                                                         0.619868      -0.000513
                                                         0.161316       0.117253
                                                         0.412255      -0.001358
                          1       6    4dy2              9.168765       0.046944
                                                         2.161194       0.005757
                                                         0.619868      -0.000296
                                                         0.161316       0.067696
                                                         0.412255      -0.000784
                          1       6    4dyz              9.168765       0.081310
                                                         2.161194       0.009971
                                                         0.619868      -0.000513
                                                         0.161316       0.117253
                                                         0.412255      -0.001358
                          1       6    4dz2              9.168765       0.046944
                                                         2.161194       0.005757
                                                         0.619868      -0.000296
                                                         0.161316       0.067696
                                                         0.412255      -0.000784

       Atomic covalent radius [Angstrom]:                                  0.320

       Atomic van der Waals radius [Angstrom]:                             1.090

     GTH Potential information for                                   GTH-SCAN-q1

       Description:                       Goedecker-Teter-Hutter pseudopotential
                                           Goedecker et al., PRB 54, 1703 (1996)
                                          Hartwigsen et al., PRB 58, 3641 (1998)
                                                      Krack, TCA 114, 145 (2005)

       Gaussian exponent of the core charge distribution:              12.429143
       Electronic configuration (s p d ...):                       1   0   0   0

       Parameters of the local part of the GTH pseudopotential:

                          rloc        C1          C2          C3          C4
                        0.200569   -4.177243    0.723816

  2. Atomic kind: O                                     Number of atoms:      57

     Orbital Basis Set                                  TZV2P-MOLOPT-SCAN-GTH-q6

       Number of orbital shell sets:                                           1
       Number of orbital shells:                                               9
       Number of primitive Cartesian functions:                                5
       Number of Cartesian basis functions:                                   34
       Number of spherical basis functions:                                   29
       Norm type:                                                              2

       Normalised Cartesian orbitals:

                        Set   Shell   Orbital            Exponent    Coefficient

                          1       1    2s               10.257817      -0.419073
                                                         3.644287      -0.215759
                                                         1.402225       0.311285
                                                         0.522057       0.263821
                                                         0.168189       0.045116

                          1       2    3s               10.257817       0.362459
                                                         3.644287       0.180656
                                                         1.402225      -0.203664
                                                         0.522057      -0.159611
                                                         0.168189       0.244682

                          1       3    4s               10.257817      -2.413417
                                                         3.644287      -0.850901
                                                         1.402225       0.170654
                                                         0.522057      -0.131214
                                                         0.168189       0.003984

                          1       4    3px              10.257817      -1.672017
                                                         3.644287      -1.345385
                                                         1.402225      -0.751048
                                                         0.522057      -0.276645
                                                         0.168189      -0.033014
                          1       4    3py              10.257817      -1.672017
                                                         3.644287      -1.345385
                                                         1.402225      -0.751048
                                                         0.522057      -0.276645
                                                         0.168189      -0.033014
                          1       4    3pz              10.257817      -1.672017
                                                         3.644287      -1.345385
                                                         1.402225      -0.751048
                                                         0.522057      -0.276645
                                                         0.168189      -0.033014

                          1       5    4px              10.257817       1.559903
                                                         3.644287       0.989060
                                                         1.402225       0.672543
                                                         0.522057       0.141420
                                                         0.168189      -0.167208
                          1       5    4py              10.257817       1.559903
                                                         3.644287       0.989060
                                                         1.402225       0.672543
                                                         0.522057       0.141420
                                                         0.168189      -0.167208
                          1       5    4pz              10.257817       1.559903
                                                         3.644287       0.989060
                                                         1.402225       0.672543
                                                         0.522057       0.141420
                                                         0.168189      -0.167208

                          1       6    5px              10.257817       5.420840
                                                         3.644287       0.742781
                                                         1.402225       2.786765
                                                         0.522057      -0.733751
                                                         0.168189       0.023040
                          1       6    5py              10.257817       5.420840
                                                         3.644287       0.742781
                                                         1.402225       2.786765
                                                         0.522057      -0.733751
                                                         0.168189       0.023040
                          1       6    5pz              10.257817       5.420840
                                                         3.644287       0.742781
                                                         1.402225       2.786765
                                                         0.522057      -0.733751
                                                         0.168189       0.023040

                          1       7    4dx2             10.257817      -1.249026
                                                         3.644287       1.475740
                                                         1.402225       0.993741
                                                         0.522057       0.395456
                                                         0.168189      -0.006736
                          1       7    4dxy             10.257817      -2.163376
                                                         3.644287       2.556057
                                                         1.402225       1.721210
                                                         0.522057       0.684950
                                                         0.168189      -0.011667
                          1       7    4dxz             10.257817      -2.163376
                                                         3.644287       2.556057
                                                         1.402225       1.721210
                                                         0.522057       0.684950
                                                         0.168189      -0.011667
                          1       7    4dy2             10.257817      -1.249026
                                                         3.644287       1.475740
                                                         1.402225       0.993741
                                                         0.522057       0.395456
                                                         0.168189      -0.006736
                          1       7    4dyz             10.257817      -2.163376
                                                         3.644287       2.556057
                                                         1.402225       1.721210
                                                         0.522057       0.684950
                                                         0.168189      -0.011667
                          1       7    4dz2             10.257817      -1.249026
                                                         3.644287       1.475740
                                                         1.402225       0.993741
                                                         0.522057       0.395456
                                                         0.168189      -0.006736

                          1       8    5dx2             10.257817       3.556458
                                                         3.644287      -4.051969
                                                         1.402225      -2.873894
                                                         0.522057       0.263147
                                                         0.168189       0.020709
                          1       8    5dxy             10.257817       6.159966
                                                         3.644287      -7.018216
                                                         1.402225      -4.977731
                                                         0.522057       0.455784
                                                         0.168189       0.035869
                          1       8    5dxz             10.257817       6.159966
                                                         3.644287      -7.018216
                                                         1.402225      -4.977731
                                                         0.522057       0.455784
                                                         0.168189       0.035869
                          1       8    5dy2             10.257817       3.556458
                                                         3.644287      -4.051969
                                                         1.402225      -2.873894
                                                         0.522057       0.263147
                                                         0.168189       0.020709
                          1       8    5dyz             10.257817       6.159966
                                                         3.644287      -7.018216
                                                         1.402225      -4.977731
                                                         0.522057       0.455784
                                                         0.168189       0.035869
                          1       8    5dz2             10.257817       3.556458
                                                         3.644287      -4.051969
                                                         1.402225      -2.873894
                                                         0.522057       0.263147
                                                         0.168189       0.020709

                          1       9    5fx3             10.257817       0.328905
                                                         3.644287      -0.098771
                                                         1.402225       0.001548
                                                         0.522057       0.341041
                                                         0.168189       0.000015
                          1       9    5fx2y            10.257817       0.735453
                                                         3.644287      -0.220859
                                                         1.402225       0.003461
                                                         0.522057       0.762591
                                                         0.168189       0.000033
                          1       9    5fx2z            10.257817       0.735453
                                                         3.644287      -0.220859
                                                         1.402225       0.003461
                                                         0.522057       0.762591
                                                         0.168189       0.000033
                          1       9    5fxy2            10.257817       0.735453
                                                         3.644287      -0.220859
                                                         1.402225       0.003461
                                                         0.522057       0.762591
                                                         0.168189       0.000033
                          1       9    5fxyz            10.257817       1.273842
                                                         3.644287      -0.382540
                                                         1.402225       0.005995
                                                         0.522057       1.320846
                                                         0.168189       0.000058
                          1       9    5fxz2            10.257817       0.735453
                                                         3.644287      -0.220859
                                                         1.402225       0.003461
                                                         0.522057       0.762591
                                                         0.168189       0.000033
                          1       9    5fy3             10.257817       0.328905
                                                         3.644287      -0.098771
                                                         1.402225       0.001548
                                                         0.522057       0.341041
                                                         0.168189       0.000015
                          1       9    5fy2z            10.257817       0.735453
                                                         3.644287      -0.220859
                                                         1.402225       0.003461
                                                         0.522057       0.762591
                                                         0.168189       0.000033
                          1       9    5fyz2            10.257817       0.735453
                                                         3.644287      -0.220859
                                                         1.402225       0.003461
                                                         0.522057       0.762591
                                                         0.168189       0.000033
                          1       9    5fz3             10.257817       0.328905
                                                         3.644287      -0.098771
                                                         1.402225       0.001548
                                                         0.522057       0.341041
                                                         0.168189       0.000015

       Atomic covalent radius [Angstrom]:                                  0.730

       Atomic van der Waals radius [Angstrom]:                             1.520

     GTH Potential information for                                   GTH-SCAN-q6

       Description:                       Goedecker-Teter-Hutter pseudopotential
                                           Goedecker et al., PRB 54, 1703 (1996)
                                          Hartwigsen et al., PRB 58, 3641 (1998)
                                                      Krack, TCA 114, 145 (2005)

       Gaussian exponent of the core charge distribution:               8.656553
       Electronic configuration (s p d ...):                       2   4   0   0

       Parameters of the local part of the GTH pseudopotential:

                          rloc        C1          C2          C3          C4
                        0.240332  -16.794986    2.452457

       Parameters of the non-local part of the GTH pseudopotential:

                   l      r(l)      h(i,j,l)

                   0    0.221500   18.441562

  3. Atomic kind: N                                     Number of atoms:       8

     Orbital Basis Set                                  TZV2P-MOLOPT-SCAN-GTH-q5

       Number of orbital shell sets:                                           1
       Number of orbital shells:                                               9
       Number of primitive Cartesian functions:                                5
       Number of Cartesian basis functions:                                   34
       Number of spherical basis functions:                                   29
       Norm type:                                                              2

       Normalised Cartesian orbitals:

                        Set   Shell   Orbital            Exponent    Coefficient

                          1       1    2s                7.741240      -0.372569
                                                         2.739304      -0.219396
                                                         1.077565       0.278149
                                                         0.425476       0.232020
                                                         0.142415       0.034612

                          1       2    3s                7.741240       0.271946
                                                         2.739304       0.236866
                                                         1.077565      -0.248170
                                                         0.425476      -0.061031
                                                         0.142415       0.200154

                          1       3    4s                7.741240      -1.413950
                                                         2.739304      -2.318830
                                                         1.077565       1.978599
                                                         0.425476      -0.833623
                                                         0.142415       0.105972

                          1       4    3px               7.741240      -1.168229
                                                         2.739304      -0.942518
                                                         1.077565      -0.541668
                                                         0.425476      -0.212751
                                                         0.142415      -0.025014
                          1       4    3py               7.741240      -1.168229
                                                         2.739304      -0.942518
                                                         1.077565      -0.541668
                                                         0.425476      -0.212751
                                                         0.142415      -0.025014
                          1       4    3pz               7.741240      -1.168229
                                                         2.739304      -0.942518
                                                         1.077565      -0.541668
                                                         0.425476      -0.212751
                                                         0.142415      -0.025014

                          1       5    4px               7.741240       0.928701
                                                         2.739304       0.844788
                                                         1.077565       0.526172
                                                         0.425476       0.069589
                                                         0.142415      -0.132325
                          1       5    4py               7.741240       0.928701
                                                         2.739304       0.844788
                                                         1.077565       0.526172
                                                         0.425476       0.069589
                                                         0.142415      -0.132325
                          1       5    4pz               7.741240       0.928701
                                                         2.739304       0.844788
                                                         1.077565       0.526172
                                                         0.425476       0.069589
                                                         0.142415      -0.132325

                          1       6    5px               7.741240       1.578027
                                                         2.739304       2.303105
                                                         1.077565       1.543896
                                                         0.425476      -0.542746
                                                         0.142415       0.030053
                          1       6    5py               7.741240       1.578027
                                                         2.739304       2.303105
                                                         1.077565       1.543896
                                                         0.425476      -0.542746
                                                         0.142415       0.030053
                          1       6    5pz               7.741240       1.578027
                                                         2.739304       2.303105
                                                         1.077565       1.543896
                                                         0.425476      -0.542746
                                                         0.142415       0.030053

                          1       7    4dx2              7.741240      -0.128620
                                                         2.739304       0.958133
                                                         1.077565       0.733739
                                                         0.425476       0.247613
                                                         0.142415      -0.003923
                          1       7    4dxy              7.741240      -0.222777
                                                         2.739304       1.659536
                                                         1.077565       1.270873
                                                         0.425476       0.428878
                                                         0.142415      -0.006794
                          1       7    4dxz              7.741240      -0.222777
                                                         2.739304       1.659536
                                                         1.077565       1.270873
                                                         0.425476       0.428878
                                                         0.142415      -0.006794
                          1       7    4dy2              7.741240      -0.128620
                                                         2.739304       0.958133
                                                         1.077565       0.733739
                                                         0.425476       0.247613
                                                         0.142415      -0.003923
                          1       7    4dyz              7.741240      -0.222777
                                                         2.739304       1.659536
                                                         1.077565       1.270873
                                                         0.425476       0.428878
                                                         0.142415      -0.006794
                          1       7    4dz2              7.741240      -0.128620
                                                         2.739304       0.958133
                                                         1.077565       0.733739
                                                         0.425476       0.247613
                                                         0.142415      -0.003923

                          1       8    5dx2              7.741240      -0.304250
                                                         2.739304      -2.504939
                                                         1.077565      -1.920826
                                                         0.425476       0.242157
                                                         0.142415       0.010511
                          1       8    5dxy              7.741240      -0.526976
                                                         2.739304      -4.338681
                                                         1.077565      -3.326968
                                                         0.425476       0.419428
                                                         0.142415       0.018205
                          1       8    5dxz              7.741240      -0.526976
                                                         2.739304      -4.338681
                                                         1.077565      -3.326968
                                                         0.425476       0.419428
                                                         0.142415       0.018205
                          1       8    5dy2              7.741240      -0.304250
                                                         2.739304      -2.504939
                                                         1.077565      -1.920826
                                                         0.425476       0.242157
                                                         0.142415       0.010511
                          1       8    5dyz              7.741240      -0.526976
                                                         2.739304      -4.338681
                                                         1.077565      -3.326968
                                                         0.425476       0.419428
                                                         0.142415       0.018205
                          1       8    5dz2              7.741240      -0.304250
                                                         2.739304      -2.504939
                                                         1.077565      -1.920826
                                                         0.425476       0.242157
                                                         0.142415       0.010511

                          1       9    5fx3              7.741240      -0.373381
                                                         2.739304       0.055209
                                                         1.077565       0.003709
                                                         0.425476       0.214826
                                                         0.142415      -0.000002
                          1       9    5fx2y             7.741240      -0.834905
                                                         2.739304       0.123450
                                                         1.077565       0.008294
                                                         0.425476       0.480365
                                                         0.142415      -0.000004
                          1       9    5fx2z             7.741240      -0.834905
                                                         2.739304       0.123450
                                                         1.077565       0.008294
                                                         0.425476       0.480365
                                                         0.142415      -0.000004
                          1       9    5fxy2             7.741240      -0.834905
                                                         2.739304       0.123450
                                                         1.077565       0.008294
                                                         0.425476       0.480365
                                                         0.142415      -0.000004
                          1       9    5fxyz             7.741240      -1.446099
                                                         2.739304       0.213822
                                                         1.077565       0.014365
                                                         0.425476       0.832016
                                                         0.142415      -0.000006
                          1       9    5fxz2             7.741240      -0.834905
                                                         2.739304       0.123450
                                                         1.077565       0.008294
                                                         0.425476       0.480365
                                                         0.142415      -0.000004
                          1       9    5fy3              7.741240      -0.373381
                                                         2.739304       0.055209
                                                         1.077565       0.003709
                                                         0.425476       0.214826
                                                         0.142415      -0.000002
                          1       9    5fy2z             7.741240      -0.834905
                                                         2.739304       0.123450
                                                         1.077565       0.008294
                                                         0.425476       0.480365
                                                         0.142415      -0.000004
                          1       9    5fyz2             7.741240      -0.834905
                                                         2.739304       0.123450
                                                         1.077565       0.008294
                                                         0.425476       0.480365
                                                         0.142415      -0.000004
                          1       9    5fz3              7.741240      -0.373381
                                                         2.739304       0.055209
                                                         1.077565       0.003709
                                                         0.425476       0.214826
                                                         0.142415      -0.000002

       Atomic covalent radius [Angstrom]:                                  0.750

       Atomic van der Waals radius [Angstrom]:                             1.550

     GTH Potential information for                                   GTH-SCAN-q5

       Description:                       Goedecker-Teter-Hutter pseudopotential
                                           Goedecker et al., PRB 54, 1703 (1996)
                                          Hartwigsen et al., PRB 58, 3641 (1998)
                                                      Krack, TCA 114, 145 (2005)

       Gaussian exponent of the core charge distribution:               6.165682
       Electronic configuration (s p d ...):                       2   3   0   0

       Parameters of the local part of the GTH pseudopotential:

                          rloc        C1          C2          C3          C4
                        0.284770  -12.418435    1.850749

       Parameters of the non-local part of the GTH pseudopotential:

                   l      r(l)      h(i,j,l)

                   0    0.256275   13.645095

  4. Atomic kind: C                                     Number of atoms:       1

     Orbital Basis Set                                  TZV2P-MOLOPT-SCAN-GTH-q4

       Number of orbital shell sets:                                           1
       Number of orbital shells:                                               9
       Number of primitive Cartesian functions:                                5
       Number of Cartesian basis functions:                                   34
       Number of spherical basis functions:                                   29
       Norm type:                                                              2

       Normalised Cartesian orbitals:

                        Set   Shell   Orbital            Exponent    Coefficient

                          1       1    2s                5.623460      -0.349209
                                                         2.098559      -0.253875
                                                         0.820511       0.248209
                                                         0.317331       0.216287
                                                         0.111116       0.012850

                          1       2    3s                5.623460       0.160090
                                                         2.098559       0.144150
                                                         0.820511      -0.103023
                                                         0.317331       0.001075
                                                         0.111116       0.142208

                          1       3    4s                5.623460      -1.207693
                                                         2.098559      -1.266789
                                                         0.820511       0.734368
                                                         0.317331      -0.329587
                                                         0.111116       0.046451

                          1       4    3px               5.623460      -0.717953
                                                         2.098559      -0.559659
                                                         0.820511      -0.405261
                                                         0.317331      -0.145150
                                                         0.111116      -0.020126
                          1       4    3py               5.623460      -0.717953
                                                         2.098559      -0.559659
                                                         0.820511      -0.405261
                                                         0.317331      -0.145150
                                                         0.111116      -0.020126
                          1       4    3pz               5.623460      -0.717953
                                                         2.098559      -0.559659
                                                         0.820511      -0.405261
                                                         0.317331      -0.145150
                                                         0.111116      -0.020126

                          1       5    4px               5.623460       0.831730
                                                         2.098559       0.877901
                                                         0.820511       0.415963
                                                         0.317331       0.032156
                                                         0.111116      -0.090730
                          1       5    4py               5.623460       0.831730
                                                         2.098559       0.877901
                                                         0.820511       0.415963
                                                         0.317331       0.032156
                                                         0.111116      -0.090730
                          1       5    4pz               5.623460       0.831730
                                                         2.098559       0.877901
                                                         0.820511       0.415963
                                                         0.317331       0.032156
                                                         0.111116      -0.090730

                          1       6    5px               5.623460       1.619151
                                                         2.098559       2.412091
                                                         0.820511       0.659876
                                                         0.317331      -0.314050
                                                         0.111116       0.028213
                          1       6    5py               5.623460       1.619151
                                                         2.098559       2.412091
                                                         0.820511       0.659876
                                                         0.317331      -0.314050
                                                         0.111116       0.028213
                          1       6    5pz               5.623460       1.619151
                                                         2.098559       2.412091
                                                         0.820511       0.659876
                                                         0.317331      -0.314050
                                                         0.111116       0.028213

                          1       7    4dx2              5.623460      -2.005729
                                                         2.098559       1.064556
                                                         0.820511       0.464044
                                                         0.317331       0.120863
                                                         0.111116       0.003311
                          1       7    4dxy              5.623460      -3.474025
                                                         2.098559       1.843865
                                                         0.820511       0.803748
                                                         0.317331       0.209340
                                                         0.111116       0.005735
                          1       7    4dxz              5.623460      -3.474025
                                                         2.098559       1.843865
                                                         0.820511       0.803748
                                                         0.317331       0.209340
                                                         0.111116       0.005735
                          1       7    4dy2              5.623460      -2.005729
                                                         2.098559       1.064556
                                                         0.820511       0.464044
                                                         0.317331       0.120863
                                                         0.111116       0.003311
                          1       7    4dyz              5.623460      -3.474025
                                                         2.098559       1.843865
                                                         0.820511       0.803748
                                                         0.317331       0.209340
                                                         0.111116       0.005735
                          1       7    4dz2              5.623460      -2.005729
                                                         2.098559       1.064556
                                                         0.820511       0.464044
                                                         0.317331       0.120863
                                                         0.111116       0.003311

                          1       8    5dx2              5.623460       4.963713
                                                         2.098559      -2.730987
                                                         0.820511      -1.179413
                                                         0.317331       0.207868
                                                         0.111116      -0.008444
                          1       8    5dxy              5.623460       8.597402
                                                         2.098559      -4.730208
                                                         0.820511      -2.042803
                                                         0.317331       0.360038
                                                         0.111116      -0.014625
                          1       8    5dxz              5.623460       8.597402
                                                         2.098559      -4.730208
                                                         0.820511      -2.042803
                                                         0.317331       0.360038
                                                         0.111116      -0.014625
                          1       8    5dy2              5.623460       4.963713
                                                         2.098559      -2.730987
                                                         0.820511      -1.179413
                                                         0.317331       0.207868
                                                         0.111116      -0.008444
                          1       8    5dyz              5.623460       8.597402
                                                         2.098559      -4.730208
                                                         0.820511      -2.042803
                                                         0.317331       0.360038
                                                         0.111116      -0.014625
                          1       8    5dz2              5.623460       4.963713
                                                         2.098559      -2.730987
                                                         0.820511      -1.179413
                                                         0.317331       0.207868
                                                         0.111116      -0.008444

                          1       9    5fx3              5.623460      -0.050797
                                                         2.098559       0.835966
                                                         0.820511      -0.002995
                                                         0.317331       0.108750
                                                         0.111116       0.000017
                          1       9    5fx2y             5.623460      -0.113585
                                                         2.098559       1.869277
                                                         0.820511      -0.006697
                                                         0.317331       0.243172
                                                         0.111116       0.000037
                          1       9    5fx2z             5.623460      -0.113585
                                                         2.098559       1.869277
                                                         0.820511      -0.006697
                                                         0.317331       0.243172
                                                         0.111116       0.000037
                          1       9    5fxy2             5.623460      -0.113585
                                                         2.098559       1.869277
                                                         0.820511      -0.006697
                                                         0.317331       0.243172
                                                         0.111116       0.000037
                          1       9    5fxyz             5.623460      -0.196736
                                                         2.098559       3.237684
                                                         0.820511      -0.011600
                                                         0.317331       0.421187
                                                         0.111116       0.000064
                          1       9    5fxz2             5.623460      -0.113585
                                                         2.098559       1.869277
                                                         0.820511      -0.006697
                                                         0.317331       0.243172
                                                         0.111116       0.000037
                          1       9    5fy3              5.623460      -0.050797
                                                         2.098559       0.835966
                                                         0.820511      -0.002995
                                                         0.317331       0.108750
                                                         0.111116       0.000017
                          1       9    5fy2z             5.623460      -0.113585
                                                         2.098559       1.869277
                                                         0.820511      -0.006697
                                                         0.317331       0.243172
                                                         0.111116       0.000037
                          1       9    5fyz2             5.623460      -0.113585
                                                         2.098559       1.869277
                                                         0.820511      -0.006697
                                                         0.317331       0.243172
                                                         0.111116       0.000037
                          1       9    5fz3              5.623460      -0.050797
                                                         2.098559       0.835966
                                                         0.820511      -0.002995
                                                         0.317331       0.108750
                                                         0.111116       0.000017

       Atomic covalent radius [Angstrom]:                                  0.770

       Atomic van der Waals radius [Angstrom]:                             1.700

     GTH Potential information for                                   GTH-SCAN-q4

       Description:                       Goedecker-Teter-Hutter pseudopotential
                                           Goedecker et al., PRB 54, 1703 (1996)
                                          Hartwigsen et al., PRB 58, 3641 (1998)
                                                      Krack, TCA 114, 145 (2005)

       Gaussian exponent of the core charge distribution:               4.454624
       Electronic configuration (s p d ...):                       2   2   0   0

       Parameters of the local part of the GTH pseudopotential:

                          rloc        C1          C2          C3          C4
                        0.335027   -8.822616    1.299117

       Parameters of the non-local part of the GTH pseudopotential:

                   l      r(l)      h(i,j,l)

                   0    0.303798    9.625763


 MOLECULE KIND INFORMATION


 All atoms are their own molecule, skipping detailed information


 TOTAL NUMBERS AND MAXIMUM NUMBERS

  Total number of            - Atomic kinds:                                   4
                             - Atoms:                                        200
                             - Shell sets:                                   200
                             - Shells:                                      1398
                             - Primitive Cartesian functions:               1000
                             - Cartesian basis functions:                   4254
                             - Spherical basis functions:                   3790

  Maximum angular momentum of- Orbital basis functions:                        3
                             - Local part of the GTH pseudopotential:          2
                             - Non-local part of the GTH pseudopotential:      0


 MODULE QUICKSTEP:  ATOMIC COORDINATES IN angstrom

 Atom  Kind  Element       X           Y           Z          Z(eff)       Mass
    1   1 H    1       7.486307    8.502767    6.240007       1.0000      1.0079
    2   1 H    1       7.027897    4.847937    7.467897       1.0000      1.0079
    3   1 H    1       5.934507    5.679297    8.338177       1.0000      1.0079
    4   1 H    1       9.184067   12.340627    8.548677       1.0000      1.0079
    5   1 H    1       8.618527   13.678327    9.428517       1.0000      1.0079
    6   1 H    1       9.216487    0.108729    7.927917       1.0000      1.0079
    7   1 H    1      10.260227    7.227557    6.246987       1.0000      1.0079
    8   1 H    1      11.428127    7.571407    7.450047       1.0000      1.0079
    9   1 H    1      11.882627    7.618787    5.796457       1.0000      1.0079
   10   1 H    1      11.635227   12.769727   13.203527       1.0000      1.0079
   11   1 H    1      10.289727   12.222127   12.436227       1.0000      1.0079
   12   1 H    1      10.630527   13.806927   12.470327       1.0000      1.0079
   13   1 H    1       8.658017    2.082547    6.655187       1.0000      1.0079
   14   1 H    1       9.974777    2.977867    6.826947       1.0000      1.0079
   15   1 H    1      10.041547    1.546247    5.891307       1.0000      1.0079
   16   1 H    1       6.991537    1.215847   12.834727       1.0000      1.0079
   17   1 H    1       8.325717    1.522707   12.055627       1.0000      1.0079
   18   1 H    1       8.225277    0.232970   12.916327       1.0000      1.0079
   19   1 H    1       7.331397    2.994657    1.064522       1.0000      1.0079
   20   1 H    1       8.325657    4.204847    1.593497       1.0000      1.0079
   21   1 H    1       8.066727    2.902587    2.529667       1.0000      1.0079
   22   1 H    1      11.224227    4.775987    8.313527       1.0000      1.0079
   23   1 H    1      11.468127    3.883957    9.682327       1.0000      1.0079
   24   1 H    1      11.788627    3.276137    8.176117       1.0000      1.0079
   25   1 H    1       2.226527    8.860797    7.965987       1.0000      1.0079
   26   1 H    1       1.985317   10.251027    8.371117       1.0000      1.0079
   27   1 H    1      12.629827    9.732067    2.163887       1.0000      1.0079
   28   1 H    1       0.197352   10.185157    2.705877       1.0000      1.0079
   29   1 H    1       5.875627    8.042347   11.156527       1.0000      1.0079
   30   1 H    1       5.207537    6.743367   11.455227       1.0000      1.0079
   31   1 H    1       6.423917    2.427087    8.878517       1.0000      1.0079
   32   1 H    1       5.880997    2.079467    7.504447       1.0000      1.0079
   33   1 H    1       1.241807    5.781407    6.810367       1.0000      1.0079
   34   1 H    1       2.186777    5.164817    7.827437       1.0000      1.0079
   35   1 H    1       2.968627    3.931877    5.099227       1.0000      1.0079
   36   1 H    1       2.008457    3.113887    5.908867       1.0000      1.0079
   37   1 H    1       3.912907    1.994227   11.667627       1.0000      1.0079
   38   1 H    1       3.887547    2.509397   13.180927       1.0000      1.0079
   39   1 H    1       6.923877   12.168327   10.865927       1.0000      1.0079
   40   1 H    1       8.411347   12.715527   11.196927       1.0000      1.0079
   41   1 H    1      10.125347    8.716717    3.092727       1.0000      1.0079
   42   1 H    1      10.633227    7.452647    2.637157       1.0000      1.0079
   43   1 H    1       2.026747   13.667327    6.735047       1.0000      1.0079
   44   1 H    1       3.080767    1.143700    6.703997       1.0000      1.0079
   45   1 H    1       9.028097    5.276137   11.247327       1.0000      1.0079
   46   1 H    1       8.192027    4.292817   12.216027       1.0000      1.0079
   47   1 H    1      12.176727   11.796727    4.002897       1.0000      1.0079
   48   1 H    1      12.159327   10.961627    5.303897       1.0000      1.0079
   49   1 H    1       9.706667   13.607927    2.366867       1.0000      1.0079
   50   1 H    1       9.745417   12.399227    1.362677       1.0000      1.0079
   51   1 H    1       4.777697   10.836327   10.756527       1.0000      1.0079
   52   1 H    1       4.760057   10.859127    9.138567       1.0000      1.0079
   53   1 H    1      12.116927    5.148137   11.714127       1.0000      1.0079
   54   1 H    1      10.870727    4.296367   12.260027       1.0000      1.0079
   55   1 H    1       3.975327    7.746287    3.856207       1.0000      1.0079
   56   1 H    1       4.841417    8.834417    4.538457       1.0000      1.0079
   57   1 H    1       7.263767    9.607357    0.810019       1.0000      1.0079
   58   1 H    1       8.427267   10.433927    1.450827       1.0000      1.0079
   59   1 H    1       4.433417   13.245327    5.657607       1.0000      1.0079
   60   1 H    1       5.785417   13.518727    4.839397       1.0000      1.0079
   61   1 H    1       6.478747    9.727207    9.834657       1.0000      1.0079
   62   1 H    1       7.671107    9.751017   10.681527       1.0000      1.0079
   63   1 H    1      10.275327    9.517427   11.948527       1.0000      1.0079
   64   1 H    1       8.948817   10.378727   11.998327       1.0000      1.0079
   65   1 H    1      11.029627    5.378247    0.729768       1.0000      1.0079
   66   1 H    1       9.743307    6.073097    0.255330       1.0000      1.0079
   67   1 H    1      13.621227    4.762757    3.668467       1.0000      1.0079
   68   1 H    1       0.921070    4.145737    4.530747       1.0000      1.0079
   69   1 H    1       0.567443   11.036727    7.228967       1.0000      1.0079
   70   1 H    1       0.555617   11.561827    5.855957       1.0000      1.0079
   71   1 H    1      10.869127   12.757227    5.818747       1.0000      1.0079
   72   1 H    1       9.820427   12.537727    4.656577       1.0000      1.0079
   73   1 H    1       2.189297    4.294237   12.676627       1.0000      1.0079
   74   1 H    1       1.622817    5.771757   12.517227       1.0000      1.0079
   75   1 H    1      13.488327    0.569560    2.293237       1.0000      1.0079
   76   1 H    1      12.654327   13.102727    1.804527       1.0000      1.0079
   77   1 H    1       8.258637    4.664757    3.992797       1.0000      1.0079
   78   1 H    1       9.370227    3.593327    4.208507       1.0000      1.0079
   79   1 H    1       4.567037    0.304939    2.571847       1.0000      1.0079
   80   1 H    1       4.032687    1.732747    2.905437       1.0000      1.0079
   81   1 H    1       0.030708    1.557737   11.349827       1.0000      1.0079
   82   1 H    1       1.462047    2.020327   11.081727       1.0000      1.0079
   83   1 H    1       5.944477    5.548727    3.517587       1.0000      1.0079
   84   1 H    1       6.558567    4.767897    2.310927       1.0000      1.0079
   85   1 H    1       1.977057    7.657157   11.352927       1.0000      1.0079
   86   1 H    1       2.436457    9.020817   10.895427       1.0000      1.0079
   87   1 H    1       8.116447    6.892207   10.073917       1.0000      1.0079
   88   1 H    1       8.808437    6.126077    9.027457       1.0000      1.0079
   89   1 H    1      12.495527    1.313627    5.953377       1.0000      1.0079
   90   1 H    1      13.578827    2.407087    6.096257       1.0000      1.0079
   91   1 H    1       4.720357   10.277927    6.437647       1.0000      1.0079
   92   1 H    1       3.919067   10.971127    7.479777       1.0000      1.0079
   93   1 H    1      13.785227    7.783857   10.070757       1.0000      1.0079
   94   1 H    1      13.327327    6.370137    9.640797       1.0000      1.0079
   95   1 H    1       5.765457    2.652217    4.691837       1.0000      1.0079
   96   1 H    1       7.075907    2.598997    3.975907       1.0000      1.0079
   97   1 H    1       3.209367   12.477727    0.730974       1.0000      1.0079
   98   1 H    1       2.710787   11.980927    2.095867       1.0000      1.0079
   99   1 H    1       5.974247    5.056727   13.803639       1.0000      1.0079
  100   1 H    1       5.483367    3.939057   12.823627       1.0000      1.0079
  101   1 H    1       2.631607    4.051297    9.331937       1.0000      1.0079
  102   1 H    1       3.049717    2.517137    9.455057       1.0000      1.0079
  103   1 H    1       9.634877    1.151066    1.135321       1.0000      1.0079
[...]
 flops   826 x    64 x    32           4567449600       0.0%    100.0%      0.0%
 flops   826 x    32 x    64           4567449600       0.0%    100.0%      0.0%
 flops   855 x    32 x    64           4727808000       0.0%    100.0%      0.0%
 flops   855 x    64 x    32           4727808000       0.0%    100.0%      0.0%
 flops    64 x    32 x   641           5104041984       0.0%    100.0%      0.0%
 flops   826 x    36 x   627           5220452160       0.0%    100.0%      0.0%
 flops   100 x    64 x   641           5316710400       0.0%    100.0%      0.0%
 flops   855 x    36 x   627           5403736800       0.0%    100.0%      0.0%
 flops  1040 x    32 x    64           5750784000       0.0%    100.0%      0.0%
 flops  1040 x    64 x    32           5750784000       0.0%    100.0%      0.0%
 flops  1069 x    64 x    32           5911142400       0.0%    100.0%      0.0%
 flops  1069 x    32 x    64           5911142400       0.0%    100.0%      0.0%
 flops   826 x    64 x    64           6089932800       0.0%    100.0%      0.0%
 flops   855 x    64 x    64           6303744000       0.0%    100.0%      0.0%
 flops  1040 x    36 x   627           6572966400       0.0%    100.0%      0.0%
 flops  1069 x    36 x   627           6756251040       0.0%    100.0%      0.0%
 flops    64 x    64 x   641           6805389312       0.0%    100.0%      0.0%
 flops   826 x    32 x   641           7116023040       0.0%    100.0%      0.0%
 flops   855 x    32 x   641           7365859200       0.0%    100.0%      0.0%
 flops  1040 x    64 x    64           7667712000       0.0%    100.0%      0.0%
 flops   100 x    32 x   627           7800883200       0.0%    100.0%      0.0%
 flops  1069 x    64 x    64           7881523200       0.0%    100.0%      0.0%
 flops    14 x    14 x    36           8802642240       0.0%    100.0%      0.0%
 flops    29 x    14 x    36           8893748304       0.0%    100.0%      0.0%
 flops    14 x    29 x    36           8905499568       0.0%    100.0%      0.0%
 flops  1040 x    32 x   641           8959641600       0.0%    100.0%      0.0%
 flops    29 x    29 x    36           9193125744       0.0%    100.0%      0.0%
 flops  1069 x    32 x   641           9209477760       0.0%    100.0%      0.0%
 flops   826 x    64 x   641           9488030720       0.0%    100.0%      0.0%
 flops   855 x    64 x   641           9821145600       0.0%    100.0%      0.0%
 flops    64 x    32 x   627           9985130496       0.0%    100.0%      0.0%
 flops   100 x    64 x   627          10401177600       0.0%    100.0%      0.0%
 flops  1040 x    64 x   641          11946188800       0.0%    100.0%      0.0%
 flops  1069 x    64 x   641          12279303680       0.0%    100.0%      0.0%
 flops    64 x    64 x   627          13313507328       0.0%    100.0%      0.0%
 flops   826 x    32 x   627          13921205760       0.0%    100.0%      0.0%
 flops   855 x    32 x   627          14409964800       0.0%    100.0%      0.0%
 flops  1040 x    32 x   627          17527910400       0.0%    100.0%      0.0%
 flops  1069 x    32 x   627          18016669440       0.0%    100.0%      0.0%
 flops   826 x    64 x   627          18561607680       0.0%    100.0%      0.0%
 flops   855 x    64 x   627          19213286400       0.0%    100.0%      0.0%
 flops  1040 x    64 x   627          23370547200       0.0%    100.0%      0.0%
 flops    14 x    14 x    32          23473712640       0.0%    100.0%      0.0%
 flops    29 x    14 x    32          23716662144       0.0%    100.0%      0.0%
 flops    14 x    29 x    32          23747998848       0.0%    100.0%      0.0%
 flops  1069 x    64 x   627          24022225920       0.0%    100.0%      0.0%
 flops    29 x    29 x    32          24515001984       0.0%    100.0%      0.0%
 flops    14 x    14 x    64          31298283520       0.0%    100.0%      0.0%
 flops    29 x    14 x    64          31622216192       0.0%    100.0%      0.0%
 flops    14 x    29 x    64          31663998464       0.0%    100.0%      0.0%
 flops    29 x    29 x    64          32686669312       0.0%    100.0%      0.0%
 flops    14 x    32 x    14         196299952128       0.0%    100.0%      0.0%
 flops    29 x    32 x    14         199934615552       0.0%    100.0%      0.0%
 flops    14 x    32 x    29         199934615552       0.0%    100.0%      0.0%
 flops    29 x    32 x    29         203414244352       0.0%    100.0%      0.0%
 flops inhomo. stacks                           0       0.0%      0.0%      0.0%
 flops total                         1.543298E+12       0.0%    100.0%      0.0%
 flops max/rank                    180.220336E+09       0.0%    100.0%      0.0%
 matmuls inhomo. stacks                         0       0.0%      0.0%      0.0%
 matmuls total                           47619684       0.0%    100.0%      0.0%
 number of processed stacks                226268       0.0%    100.0%      0.0%
 average stack size                                     0.0     210.5       0.0
 marketing flops                     1.804613E+12
 -------------------------------------------------------------------------------
 # multiplications                            928
 max memory usage/rank               1.402126E+09
 # max total images/rank                        3
 # max 3D layers                                1
 # MPI messages exchanged                   89088
 MPI messages size (bytes):
  total size                       104.920318E+09
  min size                           0.000000E+00
  max size                           9.717560E+06
  average size                       1.177716E+06
 MPI breakdown and total messages size (bytes):
             size <=      128                 252                        0
       128 < size <=     8192                4929                 40378368
      8192 < size <=    32768               19575                412856960
     32768 < size <=   131072               14400                707993600
    131072 < size <=  4194304               41292              21182158400
   4194304 < size <= 16777216                8640              82577195280
  16777216 < size                               0                        0
 -------------------------------------------------------------------------------

 *** WARNING in dbcsr_mm.F:290 :: Using a non-square number of MPI ranks ***
 *** might lead to poor performance. Used ranks: 12 Suggested: 9 25      ***

 -------------------------------------------------------------------------------
 -                                                                             -
 -                      DBCSR MESSAGE PASSING PERFORMANCE                      -
 -                                                                             -
 -------------------------------------------------------------------------------
 ROUTINE             CALLS      AVE VOLUME [Bytes]
 MP_Bcast              140                     12.
 MP_Allreduce         5027                     29.
 MP_Alltoall          3421                  94196.
 MP_ISend            20756                 471990.
 MP_IRecv            20686                 461446.
 -------------------------------------------------------------------------------

 -------------------------------------------------------------------------------
 -                                                                             -
 -                                DBM STATISTICS                               -
 -                                                                             -
 -------------------------------------------------------------------------------
    M  x    N  x    K                                          COUNT     PERCENT
 -------------------------------------------------------------------------------

 -------------------------------------------------------------------------------
 -                                                                             -
 -                                GRID STATISTICS                              -
 -                                                                             -
 -------------------------------------------------------------------------------
 LP    KERNEL             BACKEND                              COUNT     PERCENT
 6     collocate ortho    REF                                8022564      18.96%
 4     collocate ortho    REF                                6622440      15.65%
 5     collocate ortho    REF                                5935446      14.03%
 7     collocate ortho    REF                                5935446      14.03%
 6     integrate ortho    REF                                4011282       9.48%
 4     integrate ortho    REF                                3311220       7.83%
 7     integrate ortho    REF                                3068063       7.25%
 5     integrate ortho    REF                                2967723       7.01%
 8     collocate ortho    REF                                1400124       3.31%
 8     integrate ortho    REF                                 789993       1.87%
 9     integrate ortho    REF                                 121554       0.29%
 10    integrate ortho    REF                                  89931       0.21%
 11    integrate ortho    REF                                  21214       0.05%
 0     collocate general  REF                                   4800       0.01%
 0     integrate general  REF                                   2400       0.01%
 3     integrate general  REF                                   2400       0.01%
 -------------------------------------------------------------------------------

 MEMORY| Estimated peak process memory [MiB]                                1338

 -------------------------------------------------------------------------------
 ----                             MULTIGRID INFO                            ----
 -------------------------------------------------------------------------------
 count for grid        1:         430268          cutoff [a.u.]          600.00
 count for grid        2:         480146          cutoff [a.u.]          200.00
 count for grid        3:         350813          cutoff [a.u.]           66.67
 count for grid        4:         265006          cutoff [a.u.]           22.22
 total gridlevel count  :        1526233

 -------------------------------------------------------------------------------
 -                                                                             -
 -                         MESSAGE PASSING PERFORMANCE                         -
 -                                                                             -
 -------------------------------------------------------------------------------

 ROUTINE             CALLS      AVE VOLUME [Bytes]
 MP_Group                4
 MP_Bcast             4251                 127551.
 MP_Allreduce        11513                   1309.
 MP_Sync               104
 MP_Alltoall          1517               66157056.
 MP_ISendRecv         4400                 366912.
 MP_Wait             12076
 MP_comm_split          50
 MP_ISend             6464                2227767.
 MP_IRecv             6464                2227767.
 MP_Recv                32                 970240.
 -------------------------------------------------------------------------------


 -------------------------------------------------------------------------------
 -                                                                             -
 -                           R E F E R E N C E S                               -
 -                                                                             -
 -------------------------------------------------------------------------------
 
 CP2K version 2022.2, the CP2K developers group (2022).
 CP2K is freely available from https://www.cp2k.org/ .

 Kuehne,Thomas D.; Iannuzzi,Marcella; Del Ben,Mauro;
 Rybkin,Vladimir V.; Seewald,Patrick; Stein,Frederick; Laino,Teodoro;
 Khaliullin,Rustam Z.; Schuett,Ole; Schiffmann,Florian; Golze,Dorothea;
 Wilhelm,Jan; Chulkov,Sergey; Bani-Hashemian,Mohammad Hossein;
 Weber,Valery; Borstnik,Urban; Taillefumier,Mathieu;
 Jakobovits,Alice Shoshana; Lazzaro,Alfio; Pabst,Hans; Mueller,Tiziano;
 Schade,Robert; Guidon,Manuel; Andermatt,Samuel; Holmberg,Nico;
 Schenter,Gregory K.; Hehn,Anna; Bussy,Augustin; Belleflamme,Fabian;
 Tabacchi,Gloria; Gloess,Andreas; Lass,Michael; Bethune,Iain;
 Mundy,Christopher J.; Plessl,Christian; Watkins,Matt;
 VandeVondele,Joost; Krack,Matthias; Hutter,Juerg. 
 The Journal of Chemical Physics, 152 (19), (2020). 
 CP2K: An electronic structure and molecular dynamics software package -
 Quickstep: Efficient and accurate electronic structure calculations.
 https://doi.org/10.1063/5.0007045

 Lehtola, S; Steigemann, C; Oliveira, MJT; Marques, MAL. 
 SoftwareX, 7, 1-5 (2018). 
 Recent developments in libxc - A comprehensive library of functionals
 for density functional theory.
 https://doi.org/10.1016/j.softx.2017.11.002

 Schuett, Ole; Messmer, Peter; Hutter, Juerg; VandeVondele, Joost. 
 Electronic Structure Calculations on Graphics Processing Units, John
 Wiley & Sons, Ltd, 173-190 (2016). 
 GPU-Accelerated Sparse Matrix-Matrix Multiplication for
 Linear Scaling Density Functional Theory.
 https://doi.org/10.1002/9781118670712.ch8

 Heinecke, A; Henry, G; Hutchinson, M; Pabst, H. 
 Proceedings of Intl. Supercomputing Conference, 981-991 (2016). 
 LIBXSMM: Accelerating Small Matrix Multiplications
 by Runtime Code Generation.
 https://doi.org/10.1109/SC.2016.83

 Borstnik, U; VandeVondele, J; Weber, V; Hutter, J. 
 PARALLEL COMPUTING, 40 (5-6), 47-58 (2014). 
 Sparse matrix multiplication: The distributed block-compressed sparse
 row library.
 https://doi.org/10.1016/j.parco.2014.03.012

 Hutter, J; Iannuzzi, M; Schiffmann, F; VandeVondele, J. 
 WIREs Comput Mol Sci., 4 (1), 15-25 (2014). 
 CP2K: atomistic simulations of condensed matter systems.
 https://doi.org/10.1002/wcms.1159

 Marek, A; Blum, V; Johanni, R; Havu, V; Lang, B; Auckenthaler, T;
 Heinecke, A; Bungartz, H; Lederer, H. 
 Journal of Physics: Condensed Matter, 26 (21), (2014). 
 The ELPA library: scalable parallel eigenvalue solutions for
 electronic structure
 theory and computational science.
 https://doi.org/10.1088/0953-8984/26/21/213201

 Marques, MAL; Oliveira, MJT; Burnus, T. 
 COMPUTER PHYSICS COMMUNICATIONS, 183 (10), 2272-2281 (2012). 
 LIBXC: A library of exchange and correlation functionals for density
 functional theory.
 https://doi.org/10.1016/j.cpc.2012.05.007

 VandeVondele, J; Hutter, J. 
 JOURNAL OF CHEMICAL PHYSICS, 127 (11), 114105 (2007). 
 Gaussian basis sets for accurate calculations on molecular systems in
 gas and condensed phases.
 https://doi.org/10.1063/1.2770708

 Krack, M. 
 THEORETICAL CHEMISTRY ACCOUNTS, 114 (1-3), 145-152 (2005). 
 Pseudopotentials for H to Kr optimized for gradient-corrected
 exchange-correlation functionals.
 https://doi.org/10.1007/s00214-005-0655-y

 VandeVondele, J; Krack, M; Mohamed, F; Parrinello, M; Chassaing, T;
 Hutter, J. COMPUTER PHYSICS COMMUNICATIONS, 167 (2), 103-128 (2005). 
 QUICKSTEP: Fast and accurate density functional calculations using a
 mixed Gaussian and plane waves approach.
 https://doi.org/10.1016/j.cpc.2004.12.014

 Frigo, M; Johnson, SG. 
 PROCEEDINGS OF THE IEEE, 93 (2), 216-231 (2005). 
 The design and implementation of FFTW3.
 https://doi.org/10.1109/JPROC.2004.840301

 VandeVondele, J; Hutter, J. 
 JOURNAL OF CHEMICAL PHYSICS, 118 (10), 4365-4369 (2003). 
 An efficient orbital transformation method for electronic structure
 calculations.
 https://doi.org/10.1063/1.1543154

 Hartwigsen, C; Goedecker, S; Hutter, J. 
 PHYSICAL REVIEW B, 58 (7), 3641-3662 (1998). 
 Relativistic separable dual-space Gaussian pseudopotentials from H to Rn.
 https://doi.org/10.1103/PhysRevB.58.3641

 Lippert, G; Hutter, J; Parrinello, M. 
 MOLECULAR PHYSICS, 92 (3), 477-487 (1997). 
 A hybrid Gaussian and plane wave density functional scheme.
 https://doi.org/10.1080/002689797170220

 Goedecker, S; Teter, M; Hutter, J. 
 PHYSICAL REVIEW B, 54 (3), 1703-1710 (1996). 
 Separable dual-space Gaussian pseudopotentials.
 https://doi.org/10.1103/PhysRevB.54.1703


 -------------------------------------------------------------------------------
 -                                                                             -
 -                                T I M I N G                                  -
 -                                                                             -
 -------------------------------------------------------------------------------
 SUBROUTINE                       CALLS  ASD         SELF TIME        TOTAL TIME
                                MAXIMUM       AVERAGE  MAXIMUM  AVERAGE  MAXIMUM
 CP2K                                 1  1.0    0.010    0.016  517.554  517.556
 qs_forces                            1  2.0    0.000    0.000  516.868  516.869
 qs_energies                          1  3.0    0.000    0.000  488.283  488.285
 scf_env_do_scf                       1  4.0    0.000    0.000  483.603  483.605
 scf_env_do_scf_inner_loop           65  5.0    0.002    0.005  469.460  469.471
 rebuild_ks_matrix                   66  7.0    0.000    0.000  279.309  279.463
 qs_ks_build_kohn_sham_matrix        66  8.0    0.009    0.010  279.308  279.463
 qs_ks_update_qs_env                 67  6.0    0.000    0.001  252.051  252.199
 qs_rho_update_rho_low               66  6.0    0.000    0.001  223.130  223.163
 calculate_rho_elec                 132  7.0    1.072    1.116  223.130  223.162
 grid_collocate_task_list           132  8.0  155.441  157.029  155.441  157.029
 qs_vxc_create                       66  9.0    0.001    0.002  138.966  139.153
 pw_transfer                       1433 10.5    0.127    0.142  125.251  126.779
 sum_up_and_integrate                34  8.9    0.310    0.335  126.388  126.401
 integrate_v_rspace                  68  9.9    0.002    0.003  126.078  126.093
 fft_wrap_pw1pw2                   1301 11.6    0.019    0.020  123.844  125.382
 fft_wrap_pw1pw2_600                701 13.1    9.396    9.732  116.424  118.034
 xc_rho_set_and_dset_create          66 11.0    0.891    1.082  112.763  113.562
 grid_integrate_task_list            68 10.9  102.102  103.478  102.102  103.478
 fft3d_ps                          1301 13.6   63.783   64.547   93.495   94.883
 xc_vxc_pw_create                    34  9.9    0.759    0.856   89.055   89.242
 xc_functional_eval                 132 12.0    0.001    0.002   70.190   70.778
 libxc_lda_eval                     132 13.0   70.185   70.773   70.188   70.777
 density_rs2pw                      132  8.0    0.009    0.010   65.492   68.373
 xc_pw_derive                       300 11.9    0.006    0.006   57.770   58.588
 xc_exc_calc                         32 10.0    0.252    0.253   49.909   49.909
 qs_ks_update_qs_env_forces           1  3.0    0.000    0.000   27.521   27.526
 rs_pw_transfer                     804 10.0    0.015    0.017   23.537   26.342
 xc_pw_divergence                    34 10.9    0.002    0.002   24.309   25.118
 potential_pw2rs                     68 10.9    0.052    0.060   22.029   22.081
 x_to_yz                            602 15.4   12.890   12.975   18.039   18.157
 init_scf_loop                        2  5.0    0.000    0.000   14.130   14.130
 rs_pw_transfer_RS2PW_600           134 10.0    5.300    5.689   10.182   12.635
 yz_to_x                            699 13.9    7.133    7.252   11.641   12.221
 mp_waitany                        6464 12.0    7.924   11.538    7.924   11.538
 pw_scatter_p                       602 14.4   10.964   11.234   10.964   11.234
 dbcsr_multiply_generic             928 10.8    0.041    0.043   11.024   11.156
 mp_alltoall_z22v                  1301 15.6    9.657   10.367    9.657   10.367
 -------------------------------------------------------------------------------
